Title: // characterization single-ended opamp 'op2' in egneric-5V
Date: 9:22:29 PM, Tue Oct 19, 2021
Plotname: dcop
Flags: real
No. Variables:      105
No. Points:        1
Variables:	0	dummy	dummy
		1	DUT.MPCM222.m1:gmoverid	1/V plot=0 grid=0
		2	DUT.MPCM222.m1:id	A plot=0 grid=0
		3	DUT.MPCM222.m1:gds	S plot=0 grid=0
		4	DUT.MPCM222.m1:gm	S plot=0 grid=0
		5	DUT.MPCM222.m1:vdsat	V plot=0 grid=0
		6	DUT.MPCM222.m1:vth	V plot=0 grid=0
		7	DUT.MPCM222.m1:vbs	V plot=0 grid=0
		8	DUT.MPCM222.m1:vds	V plot=0 grid=0
		9	DUT.MPCM222.m1:vgs	V plot=0 grid=0
		10	DUT.MPCM221.m1:gmoverid	1/V plot=0 grid=0
		11	DUT.MPCM221.m1:id	A plot=0 grid=0
		12	DUT.MPCM221.m1:gds	S plot=0 grid=0
		13	DUT.MNCM11.m1:vgs	V plot=0 grid=0
		14	DUT.MNCM11.m1:vds	V plot=0 grid=0
		15	DUT.MNCM11.m1:vbs	V plot=0 grid=0
		16	DUT.MNCM11.m1:vth	V plot=0 grid=0
		17	DUT.MNCM11.m1:vdsat	V plot=0 grid=0
		18	DUT.MNCM11.m1:gm	S plot=0 grid=0
		19	DUT.MNCM11.m1:gds	S plot=0 grid=0
		20	DUT.MNCM11.m1:id	A plot=0 grid=0
		21	DUT.MNCM11.m1:gmoverid	1/V plot=0 grid=0
		22	DUT.MNCM12.m1:vgs	V plot=0 grid=0
		23	DUT.MNCM12.m1:vds	V plot=0 grid=0
		24	DUT.MNCM12.m1:vbs	V plot=0 grid=0
		25	DUT.MNCM12.m1:vth	V plot=0 grid=0
		26	DUT.MNCM12.m1:vdsat	V plot=0 grid=0
		27	DUT.MNCM12.m1:gm	S plot=0 grid=0
		28	DUT.MNCM12.m1:gds	S plot=0 grid=0
		29	DUT.MNCM12.m1:id	A plot=0 grid=0
		30	DUT.MNCM12.m1:gmoverid	1/V plot=0 grid=0
		31	DUT.MNCM31.m1:vgs	V plot=0 grid=0
		32	DUT.MNCM31.m1:vds	V plot=0 grid=0
		33	DUT.MNCM31.m1:vbs	V plot=0 grid=0
		34	DUT.MNCM31.m1:vth	V plot=0 grid=0
		35	DUT.MNCM31.m1:vdsat	V plot=0 grid=0
		36	DUT.MNCM31.m1:gm	S plot=0 grid=0
		37	DUT.MNCM31.m1:gds	S plot=0 grid=0
		38	DUT.MNCM31.m1:id	A plot=0 grid=0
		39	DUT.MNCM31.m1:gmoverid	1/V plot=0 grid=0
		40	DUT.MNCM32.m1:vgs	V plot=0 grid=0
		41	DUT.MNCM32.m1:vds	V plot=0 grid=0
		42	DUT.MNCM32.m1:vbs	V plot=0 grid=0
		43	DUT.MNCM32.m1:vth	V plot=0 grid=0
		44	DUT.MNCM32.m1:vdsat	V plot=0 grid=0
		45	DUT.MNCM32.m1:gm	S plot=0 grid=0
		46	DUT.MNCM32.m1:gds	S plot=0 grid=0
		47	DUT.MNCM32.m1:id	A plot=0 grid=0
		48	DUT.MNCM32.m1:gmoverid	1/V plot=0 grid=0
		49	DUT.MND11.m1:vgs	V plot=0 grid=0
		50	DUT.MND11.m1:vds	V plot=0 grid=0
		51	DUT.MND11.m1:vbs	V plot=0 grid=0
		52	DUT.MND11.m1:vth	V plot=0 grid=0
		53	DUT.MND11.m1:vdsat	V plot=0 grid=0
		54	DUT.MND11.m1:gm	S plot=0 grid=0
		55	DUT.MND11.m1:gds	S plot=0 grid=0
		56	DUT.MND11.m1:id	A plot=0 grid=0
		57	DUT.MND11.m1:gmoverid	1/V plot=0 grid=0
		58	DUT.MND12.m1:vgs	V plot=0 grid=0
		59	DUT.MND12.m1:vds	V plot=0 grid=0
		60	DUT.MND12.m1:vbs	V plot=0 grid=0
		61	DUT.MND12.m1:vth	V plot=0 grid=0
		62	DUT.MND12.m1:vdsat	V plot=0 grid=0
		63	DUT.MND12.m1:gm	S plot=0 grid=0
		64	DUT.MND12.m1:gds	S plot=0 grid=0
		65	DUT.MND12.m1:id	A plot=0 grid=0
		66	DUT.MND12.m1:gmoverid	1/V plot=0 grid=0
		67	DUT.MPCM211.m1:vgs	V plot=0 grid=0
		68	DUT.MPCM211.m1:vds	V plot=0 grid=0
		69	DUT.MPCM211.m1:vbs	V plot=0 grid=0
		70	DUT.MPCM211.m1:vth	V plot=0 grid=0
		71	DUT.MPCM211.m1:vdsat	V plot=0 grid=0
		72	DUT.MPCM211.m1:gm	S plot=0 grid=0
		73	DUT.MPCM211.m1:gds	S plot=0 grid=0
		74	DUT.MPCM211.m1:id	A plot=0 grid=0
		75	DUT.MPCM211.m1:gmoverid	1/V plot=0 grid=0
		76	DUT.MPCM212.m1:vgs	V plot=0 grid=0
		77	DUT.MPCM212.m1:vds	V plot=0 grid=0
		78	DUT.MPCM212.m1:vbs	V plot=0 grid=0
		79	DUT.MPCM212.m1:vth	V plot=0 grid=0
		80	DUT.MPCM212.m1:vdsat	V plot=0 grid=0
		81	DUT.MPCM212.m1:gm	S plot=0 grid=0
		82	DUT.MPCM212.m1:gds	S plot=0 grid=0
		83	DUT.MPCM212.m1:id	A plot=0 grid=0
		84	DUT.MPCM212.m1:gmoverid	1/V plot=0 grid=0
		85	DUT.MPCM221.m1:vgs	V plot=0 grid=0
		86	DUT.MPCM221.m1:vds	V plot=0 grid=0
		87	DUT.MPCM221.m1:vbs	V plot=0 grid=0
		88	DUT.MPCM221.m1:vth	V plot=0 grid=0
		89	DUT.MPCM221.m1:vdsat	V plot=0 grid=0
		90	DUT.MPCM221.m1:gm	S plot=0 grid=0
		91	DUT:VDD	A plot=0 grid=0
		92	DUT:VSS	A plot=0 grid=0
		93	DUT:O	A plot=0 grid=0
		94	INP	V plot=0 grid=0
		95	INN	V plot=0 grid=0
		96	OUT_IDEAL	V plot=0 grid=0
		97	OUT	V plot=0 grid=0
		98	VSS	V plot=0 grid=0
		99	VDD	V plot=0 grid=0
		100	DUT.CM	V plot=0 grid=0
		101	DUT.B	V plot=0 grid=0
		102	DUT.Z	V plot=0 grid=0
		103	DUT.Y	V plot=0 grid=0
		104	DUT.X	V plot=0 grid=0
Values:
 0	0	-7.90653190438519	-1.20318532138656e-05
	1.6907535853172e-08	9.51302309880469e-05	-0.209176628761229
	-0.891329938555322	0	-3.97805950013132
	-1.13965747501112	-7.8921217550553	-2.99583655729767e-06
	4.31932908598967e-09	0.995429687806957	0.995429687806957
	0	0.810424087799982	0.156430295288784
	3.18731309871533e-05	1.66916902310074e-09	2.99999900457031e-06
	10.624380556407	0.995429687806957	1.2281719697971
	0	0.81042408611076	0.156430296704816
	6.37584167038071e-05	3.3350431800595e-09	6.00077459788275e-06
	10.6250311316148	1.02194049986868	1.02194049986868
	0	0.804801350755974	0.184578971689776
	0.00010858831679525	7.81356061411513e-09	1.20317948204677e-05
	9.02511375867454	1.02194049986868	2.49976172612925
	0	0.804801340030081	0.184578980715129
	0.000108740223189176	7.74534453354394e-09	1.2043291186206e-05
	9.02911186721997	1.27158975633215	2.63217055519178
	-1.2281719697971	1.11712734493078	0.137552213001801
	3.82938806605532e-05	8.19142477975792e-10	2.9958198801158e-06
	12.7824376793714	1.2718280302029	2.63178474919002
	-1.2281719697971	1.11712734493193	0.137763206575173
	3.83506839364713e-05	8.22834313386999e-10	3.0049507620478e-06
	12.7625000303121	-1.14004328101288	-1.14004328101288
	0	-0.891329938555322	-0.209498765583387
	2.36780474748463e-05	4.33860583291786e-09	-3.0049666974686e-06
	-7.87963725973709	-1.14004328101288	-2.50023827387075
	0	-0.891329938555322	-0.209498765583387
	9.49820914059187e-05	1.71714874152856e-08	-1.20433468286249e-05
	-7.88668574217513	-1.13965747501112	-1.13965747501112
	0	-0.891329938555322	-0.209176628761229
	2.36435067895177e-05	3.00758630504963e-05	-3.3075865433235e-05
	2.38273870752591e-12	0	-0.000238273870752587
	0	-0.000238273870752587	-2.5
	2.5	-1.2718280302029	-1.50457031219304
	-1.47805950013132	1.36034252498888	1.35995671898712
Plotname: dcmatch
Flags: real
No. Variables:       43
No. Points:        1
Variables:	0	dummy	dummy
		1	totalOutput.sigmaOut	V plot=0 grid=0
		2	totalOutput.dcOp	V plot=0 grid=0
		3	DUT.MNCM11.Avt_nmos(m).Contribution	V plot=0 grid=0
		4	DUT.MNCM11.Avt_nmos(m).Sensitivity	  plot=0 grid=0
		5	DUT.MNCM11.Au0_nmos(m).Contribution	V plot=0 grid=0
		6	DUT.MNCM11.Au0_nmos(m).Sensitivity	  plot=0 grid=0
		7	DUT.MNCM12.Avt_nmos(m).Contribution	V plot=0 grid=0
		8	DUT.MNCM12.Avt_nmos(m).Sensitivity	  plot=0 grid=0
		9	DUT.MNCM12.Au0_nmos(m).Contribution	V plot=0 grid=0
		10	DUT.MNCM12.Au0_nmos(m).Sensitivity	  plot=0 grid=0
		11	DUT.MNCM31.Avt_nmos(m).Contribution	V plot=0 grid=0
		12	DUT.MNCM31.Avt_nmos(m).Sensitivity	  plot=0 grid=0
		13	DUT.MNCM31.Au0_nmos(m).Contribution	V plot=0 grid=0
		14	DUT.MNCM31.Au0_nmos(m).Sensitivity	  plot=0 grid=0
		15	DUT.MNCM32.Avt_nmos(m).Contribution	V plot=0 grid=0
		16	DUT.MNCM32.Avt_nmos(m).Sensitivity	  plot=0 grid=0
		17	DUT.MNCM32.Au0_nmos(m).Contribution	V plot=0 grid=0
		18	DUT.MNCM32.Au0_nmos(m).Sensitivity	  plot=0 grid=0
		19	DUT.MND11.Avt_nmos(m).Contribution	V plot=0 grid=0
		20	DUT.MND11.Avt_nmos(m).Sensitivity	  plot=0 grid=0
		21	DUT.MND11.Au0_nmos(m).Contribution	V plot=0 grid=0
		22	DUT.MND11.Au0_nmos(m).Sensitivity	  plot=0 grid=0
		23	DUT.MND12.Avt_nmos(m).Contribution	V plot=0 grid=0
		24	DUT.MND12.Avt_nmos(m).Sensitivity	  plot=0 grid=0
		25	DUT.MND12.Au0_nmos(m).Contribution	V plot=0 grid=0
		26	DUT.MND12.Au0_nmos(m).Sensitivity	  plot=0 grid=0
		27	DUT.MPCM211.Avt_pmos(m).Contribution	V plot=0 grid=0
		28	DUT.MPCM211.Avt_pmos(m).Sensitivity	  plot=0 grid=0
		29	DUT.MPCM211.Au0_pmos(m).Contribution	V plot=0 grid=0
		30	DUT.MPCM211.Au0_pmos(m).Sensitivity	  plot=0 grid=0
		31	DUT.MPCM212.Avt_pmos(m).Contribution	V plot=0 grid=0
		32	DUT.MPCM212.Avt_pmos(m).Sensitivity	  plot=0 grid=0
		33	DUT.MPCM212.Au0_pmos(m).Contribution	V plot=0 grid=0
		34	DUT.MPCM212.Au0_pmos(m).Sensitivity	  plot=0 grid=0
		35	DUT.MPCM221.Avt_pmos(m).Contribution	V plot=0 grid=0
		36	DUT.MPCM221.Avt_pmos(m).Sensitivity	  plot=0 grid=0
		37	DUT.MPCM221.Au0_pmos(m).Contribution	V plot=0 grid=0
		38	DUT.MPCM221.Au0_pmos(m).Sensitivity	  plot=0 grid=0
		39	DUT.MPCM222.Avt_pmos(m).Contribution	V plot=0 grid=0
		40	DUT.MPCM222.Avt_pmos(m).Sensitivity	  plot=0 grid=0
		41	DUT.MPCM222.Au0_pmos(m).Contribution	V plot=0 grid=0
		42	DUT.MPCM222.Au0_pmos(m).Sensitivity	  plot=0 grid=0
Values:
 0	0	0.00226848642988614	-0.000238273870752587
	-2.48871621444666e-06	-0.000276524023827407	2.37080675011273e-10
	3.95134458352121e-08	2.48884533160502e-06	0.000276538370178336
	-2.37139543701966e-10	-3.95232572836611e-08	-0.000646953229777895
	-0.0718836921975439	7.22847583998992e-08	1.20474597333165e-05
	0.00064709884151401	0.0718998712793345	-7.24047511256685e-08
	-1.20674585209448e-05	0.00100285056277262	0.111427840308069
	-7.99277211301874e-08	-1.33212868550312e-05	-0.00100285753237978
	-0.111428614708865	8.00515207687679e-08	1.3341920128128e-05
	-0.000756720087536654	-0.0630600072947212	-2.83220533166112e-07
	-3.1468948129568e-05	0.000756889725930776	0.0630741438275647
	2.84100260118989e-07	3.15666955687765e-05	0.000758791250875397
	0.0632326042396164	2.83551635460378e-07	3.15057372733753e-05
	-0.000758965456605088	-0.0632471213837573	-2.85283104688527e-07
	-3.16981227431697e-05
Plotname: stb
Flags: complex
No. Variables:        2
No. Points:      501
Variables:	0	freq	Hz
		1	loopGain	 plot=0 grid=0
Values:
 0	1,0
	-4410.64806664517,4.07793850494492
 1	1.0471285480509,0
	-4410.6477029672,4.2701254737061
 2	1.09647819614319,0
	-4410.64730419645,4.47136988309481
 3	1.14815362149688,0
	-4410.64686695867,4.68209858943221
 4	1.20226443461741,0
	-4410.64638753143,4.90275856496861
 5	1.25892541179417,0
	-4410.64586185798,5.13381784584518
 6	1.31825673855641,0
	-4410.64528546083,5.3757665244936
 7	1.38038426460289,0
	-4410.64465345577,5.6291177890133
 8	1.44543977074593,0
	-4410.64396048003,5.89440901131012
 9	1.51356124843621,0
	-4410.64320064896,6.17220288655242
 10	1.58489319246111,0
	-4410.64236750387,6.46308862627273
 11	1.65958690743756,0
	-4410.6414539811,6.76768320772627
 12	1.73780082874938,0
	-4410.64045232819,7.08663268193642
 13	1.81970085860998,0
	-4410.6393540359,7.42061354337617
 14	1.90546071796325,0
	-4410.638149779,7.770334164176
 15	1.99526231496888,0
	-4410.63682934361,8.13653629582299
 16	2.08929613085404,0
	-4410.63538151234,8.51999664140512
 17	2.18776162394955,0
	-4410.63379399723,8.92152850204103
 18	2.29086765276778,0
	-4410.63205332681,9.34198350064139
 19	2.39883291901949,0
	-4410.6301447187,9.78225338673043
 20	2.51188643150958,0
	-4410.62805197585,10.2432719262996
 21	2.63026799189538,0
	-4410.62575732953,10.7260168803504
 22	2.75422870333817,0
	-4410.62324130156,11.2315120765984
 23	2.88403150312661,0
	-4410.62048253461,11.7608295784722
 24	3.01995172040202,0
	-4410.61745761096,12.3150919560521
 25	3.16227766016838,0
	-4410.61414085588,12.8954746637003
 26	3.31131121482592,0
	-4410.6105041132,13.5032085292969
 27	3.46736850452532,0
	-4410.60651650426,14.1395823603529
 28	3.63078054770102,0
	-4410.60214419177,14.8059456726035
 29	3.80189396320562,0
	-4410.59735005582,15.5037115461944
 30	3.98107170553498,0
	-4410.5920933984,16.2343596161395
 31	4.16869383470336,0
	-4410.58632960878,16.9994392028843
 32	4.36515832240167,0
	-4410.58000975251,17.8005725891677
 33	4.57088189614876,0
	-4410.57308018859,18.6394584507591
 34	4.78630092322639,0
	-4410.56548209706,19.5178754472997
 35	5.01187233627273,0
	-4410.55715098629,20.4376859811821
 36	5.24807460249774,0
	-4410.54801614151,21.4008401319037
 37	5.49540873857626,0
	-4410.5380000291,22.4093797741004
 38	5.75439937337158,0
	-4410.52701763013,23.4654428874392
 39	6.02559586074359,0
	-4410.51497572994,24.5712680674289
 40	6.30957344480195,0
	-4410.50177212735,25.729199245965
 41	6.60693448007598,0
	-4410.48729475685,26.9416906310562
 42	6.91830970918938,0
	-4410.4714207446,28.2113118759148
 43	7.24435960074992,0
	-4410.45401536622,29.5407534874244
 44	7.58577575029186,0
	-4410.43493090642,30.932832484747
 45	7.94328234724284,0
	-4410.41400539985,32.3904983190027
 46	8.31763771102674,0
	-4410.39106127078,33.9168390659073
 47	8.70963589956084,0
	-4410.36590380802,35.5150879025474
 48	9.12010839355913,0
	-4410.33831952304,37.1886298814909
 49	9.54992586021439,0
	-4410.30807435551,38.9410090147582
 50	10,0
	-4410.27491166588,40.7759356800452
 51	10.471285480509,0
	-4410.23855007151,42.6972943639916
 52	10.9647819614319,0
	-4410.19868106498,44.7091517558192
 53	11.4815362149689,0
	-4410.15496639653,46.8157652057205
 54	12.0226443461742,0
	-4410.10703521384,49.0215915630372
 55	12.5892541179417,0
	-4410.05448091342,51.3312964088638
 56	13.1825673855641,0
	-4409.99685770975,53.7497636991462
 57	13.8038426460289,0
	-4409.93367685199,56.2821058329963
 58	14.4543977074593,0
	-4409.8644025023,58.9336741630791
 59	15.1356124843621,0
	-4409.78844718482,61.7100699626277
 60	15.8489319246112,0
	-4409.70516684512,64.6171558670425
 61	16.5958690743757,0
	-4409.6138553817,67.661067803398
 62	17.3780082874938,0
	-4409.51373869897,70.8482274261092
 63	18.1970085860999,0
	-4409.40396816521,74.1853550722785
 64	19.0546071796326,0
	-4409.28361344078,77.6794832519905
 65	19.9526231496889,0
	-4409.15165466888,81.3379706895105
 66	20.8929613085405,0
	-4409.00697382381,85.168516923651
 67	21.8776162394956,0
	-4408.84834534231,89.1791774860091
 68	22.9086765276778,0
	-4408.67442579206,93.3783796615128
 69	23.988329190195,0
	-4408.48374255773,97.7749388416441
 70	25.1188643150959,0
	-4408.27468150833,102.378075478801
 71	26.302679918954,0
	-4408.04547340717,107.197432638844
 72	27.5422870333818,0
	-4407.79417911217,112.243094158003
 73	28.8403150312662,0
	-4407.51867331741,117.525603393544
 74	30.1995172040203,0
	-4407.21662679858,123.05598256257
 75	31.622776601684,0
	-4406.88548694493,128.845752649265
 76	33.1131121482593,0
	-4406.52245648834,134.906953860881
 77	34.6736850452534,0
	-4406.12447023604,141.252166599995
 78	36.3078054770103,0
	-4405.68816959073,147.894532909747
 79	38.0189396320563,0
	-4405.20987473197,154.847778343967
 80	39.81071705535,0
	-4404.68555416982,162.126234191836
 81	41.6869383470338,0
	-4404.11079150864,169.74485998058
 82	43.6515832240169,0
	-4403.48074913697,177.719266155373
 83	45.7088189614878,0
	-4402.79012853133,186.065736813464
 84	47.8630092322641,0
	-4402.03312697903,194.801252356597
 85	50.1187233627275,0
	-4401.20339036559,203.943511888633
 86	52.4807460249776,0
	-4400.2939616312,213.510955150769
 87	54.9540873857628,0
	-4399.29722463864,223.522783764878
 88	57.5439937337161,0
	-4398.20484302576,233.998981502146
 89	60.2559586074362,0
	-4397.00769364163,244.960333250947
 90	63.0957344480197,0
	-4395.69579412085,256.428442301703
 91	66.06934480076,0
	-4394.25822419053,268.425745512099
 92	69.1830970918941,0
	-4392.6830402489,280.975525843945
 93	72.4435960074995,0
	-4390.95718260174,294.101921666822
 94	75.8577575029189,0
	-4389.06637506482,307.829932176026
 95	79.4328234724287,0
	-4386.99501621741,322.185418121768
 96	83.1763771102677,0
	-4384.72606192475,337.195096975765
 97	87.0963589956087,0
	-4382.24089851516,352.886531504311
 98	91.2010839355916,0
	-4379.5192062133,369.288110604704
 99	95.4992586021443,0
	-4376.53881224144,386.429021073072
 100	100.000000000001,0
	-4373.27553322724,404.339208825573
 101	104.712854805091,0
	-4369.7030065319,423.049327891571
 102	109.647819614319,0
	-4365.79251017652,442.590675282877
 103	114.815362149689,0
	-4361.51277122301,462.995109626606
 104	120.226443461742,0
	-4356.8297625534,484.294951191478
 105	125.892541179418,0
	-4351.70648825572,506.522860689241
 106	131.825673855642,0
	-4346.10275791975,529.711693922328
 107	138.03842646029,0
	-4339.97495067323,553.894329108822
 108	144.543977074594,0
	-4333.27576989435,579.103463359212
 109	151.356124843622,0
	-4325.95399015097,605.371374517016
 110	158.489319246113,0
	-4317.95419843543,632.729644284501
 111	165.958690743757,0
	-4309.21653225018,661.208838241456
 112	173.780082874939,0
	-4299.67641808318,690.838138194424
 113	181.970085861,0
	-4289.26431445603,721.644922049562
 114	190.546071796326,0
	-4277.90546482524,753.654286321386
 115	199.52623149689,0
	-4265.51966683821,786.8885064224
 116	208.929613085406,0
	-4252.02106560577,821.36642998374
 117	218.776162394957,0
	-4237.3179802217,857.102798835367
 118	229.086765276779,0
	-4221.3127742875,894.107495828098
 119	239.883291901951,0
	-4203.90178301315,932.38471358764
 120	251.18864315096,0
	-4184.9753111812,971.932043476796
 121	263.02679918954,0
	-4164.41771830178,1012.7394847677
 122	275.422870333819,0
	-4142.10760911902,1054.78837617289
 123	288.403150312663,0
	-4117.91814929093,1098.05025454518
 124	301.995172040204,0
	-4091.71752805512,1142.48564913827
 125	316.227766016841,0
	-4063.36959050031,1188.04282367087
 126	331.131121482594,0
	-4032.73466310119,1234.65648339829
 127	346.736850452535,0
	-3999.67059608592,1282.24646990053
 128	363.078054770105,0
	-3964.03404515206,1330.71647247605
 129	380.189396320565,0
	-3925.68201288091,1379.95279188043
 130	398.107170553501,0
	-3884.47366635556,1429.82319930585
 131	416.869383470339,0
	-3840.27244185785,1480.17594078399
 132	436.51583224017,0
	-3792.94843988097,1530.83894427254
 133	457.088189614879,0
	-3742.38110355049,1581.61929278628
 134	478.630092322643,0
	-3688.4621613767,1632.30303192639
 135	501.187233627277,0
	-3631.09880041484,1682.65538271466
 136	524.807460249777,0
	-3570.21701923942,1732.42143046025
 137	549.54087385763,0
	-3505.76509187968,1781.32735645466
 138	575.439937337162,0
	-3437.71705472948,1829.08227071331
 139	602.559586074363,0
	-3366.07610974957,1875.38069037334
 140	630.957344480199,0
	-3290.87782023329,1919.90568915956
 141	660.693448007602,0
	-3212.19296173306,1962.33271867572
 142	691.830970918943,0
	-3130.12988204399,2002.3340723903
 143	724.435960074997,0
	-3044.83622240164,2039.58392947178
 144	758.577575029191,0
	-2956.49985860488,2073.76387941025
 145	794.328234724289,0
	-2865.34893689043,2104.56879208417
 146	831.763771102679,0
	-2771.65090547312,2131.71286413287
 147	870.96358995609,0
	-2675.71047848342,2154.93564441643
 148	912.010839355919,0
	-2577.86651313056,2174.00782156814
 149	954.992586021446,0
	-2478.48783116945,2188.7365482704
 150	1000.00000000001,0
	-2377.96806883129,2198.97008141869
 151	1047.12854805091,0
	-2276.71969156916,2204.60153601617
 152	1096.4781961432,0
	-2175.16735710998,2205.57158305992
 153	1148.1536214969,0
	-2073.74084843234,2201.86996604653
 154	1202.26443461743,0
	-1972.86782408722,2193.53576449314
 155	1258.92541179418,0
	-1872.966644364,2180.65639198646
 156	1318.25673855642,0
	-1774.4395271933,2163.36537619641
 157	1380.3842646029,0
	-1677.66626776657,2141.83902488475
 158	1445.43977074594,0
	-1582.99872249731,2116.29213049801
 159	1513.56124843623,0
	-1490.75621407708,2086.97290371112
 160	1584.89319246113,0
	-1401.22196378938,2054.15735070537
 161	1659.58690743758,0
	-1314.6406040395,2018.14331934063
 162	1737.8008287494,0
	-1231.21677221744,1979.24443615463
 163	1819.70085861,0
	-1151.11474000777,1937.78414083909
 164	1905.46071796327,0
	-1074.45899280226,1894.08999982739
 165	1995.2623149689,0
	-1001.3356436576,1848.48844882406
 166	2089.29613085406,0
	-931.794545989955,1801.3000785373
 167	2187.76162394958,0
	-865.851958787213,1752.83554131429
 168	2290.8676527678,0
	-803.493616590422,1703.39212139066
 169	2398.83291901952,0
	-744.678062526953,1653.25097981097
 170	2511.88643150961,0
	-689.340114459566,1602.67505822363
 171	2630.26799189541,0
	-637.394350224402,1551.90760419166
 172	2754.2287033382,0
	-588.738516093527,1501.17126480578
 173	2884.03150312664,0
	-543.256781722176,1450.66768475913
 174	3019.95172040205,0
	-500.822783519768,1400.57753932591
 175	3162.27766016842,0
	-461.302415886233,1351.06093095694
 176	3311.31121482595,0
	-424.556345302027,1302.25807981724
 177	3467.36850452536,0
	-390.442235621706,1254.29024260707
 178	3630.78054770106,0
	-358.816683891412,1207.26079974004
 179	3801.89396320566,0
	-329.53687464416,1161.25645771283
 180	3981.07170553502,0
	-302.461967096827,1116.34852072817
 181	4168.69383470341,0
	-277.454234186661,1072.59419290886
 182	4365.15832240172,0
	-254.379975253682,1030.03787941939
 183	4570.88189614881,0
	-233.110225644745,988.712461296826
 184	4786.30092322645,0
	-213.521286902351,948.640524621325
 185	5011.87233627279,0
	-195.495100754564,909.835529767221
 186	5248.0746024978,0
	-178.919489049354,872.302910860996
 187	5495.40873857632,0
	-163.688280293783,836.041099239667
 188	5754.39937337165,0
	-149.701341728372,801.042467700133
 189	6025.59586074366,0
	-136.864533977825,767.294194735767
 190	6309.57344480202,0
	-125.089603429914,734.779049814743
 191	6606.93448007605,0
	-114.294025608913,703.476102167504
 192	6918.30970918946,0
	-104.400811044157,673.361356562519
 193	7244.35960075,0
	-95.3382834645569,644.40832024926
 194	7585.77575029194,0
	-87.0398386394552,616.588505678396
 195	7943.28234724293,0
	-79.4436908208508,589.871873834111
 196	8317.63771102683,0
	-72.4926125248772,564.227223076726
 197	8709.63589956093,0
	-66.1336723293714,539.622528331042
 198	9120.10839355923,0
	-60.3179744391564,516.02523530344
 199	9549.9258602145,0
	-55.0004029726362,493.402514194623
 200	10000.0000000001,0
	-50.1393732515032,471.721477113824
 201	10471.2854805091,0
	-45.6965918007318,450.949363115831
 202	10964.781961432,0
	-41.6368262902421,431.05369448383
 203	11481.536214969,0
	-37.9276862565238,412.00240758051
 204	12022.6443461743,0
	-34.539415118252,393.763961294912
 205	12589.2541179419,0
	-31.4446937381202,376.307425827925
 206	13182.5673855643,0
	-28.6184555762442,359.602554288509
 207	13803.8426460291,0
	-26.0377133133624,343.619839319416
 208	14454.3977074595,0
	-23.6813966973496,328.330556734843
 209	15135.6124843623,0
	-21.5302012693019,313.706797935346
 210	15848.9319246114,0
	-19.5664475557539,299.721492666277
 211	16595.8690743759,0
	-17.7739502646022,286.348423505083
 212	17378.008287494,0
	-16.137896990967,273.562233299006
 213	18197.0085861001,0
	-14.6447359203312,261.338426627403
 214	19054.6071796328,0
	-13.2820720109252,249.653366230425
 215	19952.6231496891,0
	-12.038571137728,238.48426522781
 216	20892.9613085407,0
	-10.9038716902586,227.809175846053
 217	21877.6162394959,0
	-9.86850312889164,217.606975278876
 218	22908.6765276781,0
	-8.92381102265376,207.857349222979
 219	23988.3291901953,0
	-8.06188811111146,198.540773557935
 220	25118.8643150962,0
	-7.27551095447017,189.638494574636
 221	26302.6799189542,0
	-6.55808175964629,181.132508099896
 222	27542.2870333821,0
	-5.90357499240315,173.00553781514
 223	28840.3150312665,0
	-5.30648841007766,165.241013023424
 224	30199.5172040206,0
	-4.76179817155174,157.823046080992
 225	31622.7766016843,0
	-4.26491770449036,150.736409676271
 226	33113.1121482596,0
	-3.81166003116901,143.966514110289
 227	34673.6850452537,0
	-3.39820327537768,137.499384707292
 228	36307.8054770107,0
	-3.02105909284495,131.321639462538
 229	38018.9396320567,0
	-2.67704378659349,125.420467015328
 230	39810.7170553504,0
	-2.36325188642366,119.783605018996
 231	41686.9383470342,0
	-2.07703198873071,114.399318965525
 232	43651.5832240173,0
	-1.81596466847147,109.256381510335
 233	45708.8189614883,0
	-1.57784229006682,104.344052332417
 234	47863.0092322646,0
	-1.36065055748509,99.6520585561112
 235	50118.7233627281,0
	-1.16255165684142,95.1705757532578
 236	52480.7460249781,0
	-0.981868856514576,90.8902095380163
 237	54954.0873857634,0
	-0.817072440897332,86.8019777612289
 238	57543.9937337167,0
	-0.666766864043455,82.8972933066066
 239	60255.9586074368,0
	-0.529679018826671,79.1679474871977
 240	63095.7344480204,0
	-0.404647526048106,75.6060940373998
 241	66069.3448007607,0
	-0.290612955752323,72.2042336931529
 242	69183.0970918948,0
	-0.186608900518689,68.9551993507869
 243	72443.5960075003,0
	-0.0917538271897073,65.8521417932666
 244	75857.7575029197,0
	-0.00524363974737177,62.8885159711835
 245	79432.8234724295,0
	0.0736551082008083,60.0580678247633
 246	83176.3771102686,0
	0.145611407670016,57.3548216323364
 247	87096.3589956096,0
	0.211235446757945,54.7730678701124
 248	91201.0839355926,0
	0.271083768408211,52.3073515676884
 249	95499.2586021453,0
	0.325663976494661,49.9524611434646
 250	100000.000000002,0
	0.375439029567489,47.7034177040169
 251	104712.854805092,0
	0.420831158181147,45.55546479147
 252	109647.81961432,0
	0.462225438627607,43.5040585629964
 253	114815.36214969,0
	0.499973053048792,41.5448583867301
 254	120226.443461743,0
	0.534394263308281,39.6737178386088
 255	125892.541179419,0
	0.565781123622475,37.8866760849354
 256	131825.673855643,0
	0.594399954757979,36.1799496357693
 257	138038.426460291,0
	0.620493600644343,34.5499244546095
 258	144543.977074595,0
	0.644283486400019,32.9931484102076
 259	151356.124843624,0
	0.665971495137967,31.5063240567465
 260	158489.319246114,0
	0.685741679370533,30.0863017290281
 261	165958.690743759,0
	0.703761821476753,28.7300729397327
 262	173780.082874941,0
	0.720184856396827,27.4347640662365
 263	181970.085861002,0
	0.735150168586312,26.1976303148986
 264	190546.071796328,0
	0.748784774192387,25.016049951152
 265	199526.231496892,0
	0.761204398449014,23.8875187841577
 266	208929.613085408,0
	0.772514457412077,22.8096448951938
 267	218776.162394959,0
	0.782810952342645,21.7801435993646
 268	229086.765276782,0
	0.792181284315662,20.7968326306159
 269	239883.291901954,0
	0.800704995957675,19.8576275404365
 270	251188.643150963,0
	0.808454446600717,18.9605373010128
 271	263026.799189543,0
	0.815495426582751,18.1036601039771
 272	275422.870333822,0
	0.821887715909715,17.2851793462562
 273	288403.150312666,0
	0.827685592027344,16.5033597948831
 274	301995.172040208,0
	0.832938291022335,15.7565439229784
 275	316227.766016844,0
	0.83769042618349,15.0431484094451
 276	331131.121482598,0
	0.841982367494338,14.3616607952418
 277	346736.850452539,0
	0.845850585305188,13.7106362894207
 278	363078.054770109,0
	0.849327961133198,13.0886947184152
 279	380189.396320569,0
	0.852444068268239,12.4945176123643
 280	398107.170553505,0
	0.855225424615587,11.9268454225468
 281	416869.383470344,0
	0.85769571997886,11.3844748642755
 282	436515.832240175,0
	0.859876019784865,10.8662563798783
 283	457088.189614884,0
	0.861784947062599,10.3710917166523
 284	478630.092322648,0
	0.863438844324288,9.89793161493713
 285	501187.233627283,0
	0.864851916842899,9.44577360170448
 286	524807.460249783,0
	0.866036358687286,9.01365988530578
 287	549540.873857636,0
	0.867002462757003,8.60067534725977
 288	575439.937337169,0
	0.867758715955016,8.20594562719735
 289	602559.58607437,0
	0.868311880549357,7.82863529731151
 290	630957.344480207,0
	0.868667062700799,7.46794612288674
 291	660693.44800761,0
	0.868827769078661,7.12311540570519
 292	691830.970918951,0
	0.868795952445806,6.79341440734546
 293	724435.960075006,0
	0.86857204707158,6.47814684960508
 294	758577.5750292,0
	0.868154994828382,6.17664748948765
 295	794328.234724299,0
	0.867542262843207,5.88828076640142
 296	831763.771102689,0
	0.866729853614427,5.61243951941434
 297	870963.5899561,0
	0.865712308565894,5.34854377260188
 298	912010.83935593,0
	0.864482706098,5.09603958670367
 299	954992.586021457,0
	0.863032655311477,4.85439797547241
 300	1000000.00000002,0
	0.861352286724723,4.62311388524727
 301	1047128.54805092,0
	0.85943024148314,4.40170523641093
 302	1096478.19614321,0
	0.857253660769314,4.18971202548747
 303	1148153.62149691,0
	0.854808177367537,3.98669548669973
 304	1202264.43461744,0
	0.852077911614504,3.79223731182139
 305	1258925.4117942,0
	0.849045474278284,3.60593892711956
 306	1318256.73855644,0
	0.845691979246207,3.42742082607707
 307	1380384.26460292,0
	0.841997069262653,3.25632195639587
 308	1445439.77074596,0
	0.837938958329966,3.09229915950031
 309	1513561.24843624,0
	0.833494494756079,2.93502666036674
 310	1584893.19246115,0
	0.828639249181456,2.7841956049892
 311	1659586.9074376,0
	0.823347632221569,2.63951364213659
 312	1737800.82874941,0
	0.817593046586938,2.50070454525501
 313	1819700.85861002,0
	0.811348078653468,2.36750786941391
 314	1905460.71796329,0
	0.804584734405331,2.23967863708855
 315	1995262.31496892,0
	0.797274724409605,2.11698704532579
 316	2089296.13085409,0
	0.789389801949421,1.99921818548096
 317	2187761.6239496,0
	0.780902157581479,1.88617176528296
 318	2290867.65276783,0
	0.771784872136779,1.77766182154372
 319	2398832.91901955,0
	0.762012428499969,1.67351641046321
 320	2511886.43150964,0
	0.751561280346566,1.57357726129885
 321	2630267.99189544,0
	0.740410473375185,1.47769937830228
 322	2754228.70333823,0
	0.728542311463489,1.38575057542747
 323	2884031.50312667,0
	0.715943056664305,1.29761092854897
 324	3019951.72040209,0
	0.702603648157198,1.21317213096327
 325	3162277.66016845,0
	0.688520421354866,1.13233673993507
 326	3311311.21482599,0
	0.673695804569003,1.05501730511285
 327	3467368.5045254,0
	0.658138967260381,0.981135373838478
 328	3630780.5477011,0
	0.641866391271796,0.910620373696378
 329	3801893.9632057,0
	0.624902334932161,0.843408378969625
 330	3981071.70553507,0
	0.607279159878447,0.779440774753362
 331	4168693.83470345,0
	0.589037492172566,0.718662839957982
 332	4365158.32240176,0
	0.570226193001129,0.661022277835362
 333	4570881.89614886,0
	0.550902120005567,0.606467729412665
 334	4786300.9232265,0
	0.531129667989486,0.554947310705344
 335	5011872.33627284,0
	0.510980087080989,0.506407218204252
 336	5248074.60249785,0
	0.490530586882303,0.4607904483761
 337	5495408.73857638,0
	0.469863246036774,0.418035675422801
 338	5754399.37337171,0
	0.449063757184663,0.378076327171657
 339	6025595.86074372,0
	0.428220046622629,0.340839891831319
 340	6309573.44480209,0
	0.407420815334952,0.306247478833205
 341	6606934.48007612,0
	0.386754052776975,0.27421364571474
 342	6918309.70918954,0
	0.366305576434339,0.24464649080633
 343	7244359.60075008,0
	0.346157648603298,0.217447999277182
 344	7585775.75029203,0
	0.326387717181617,0.192514618796064
 345	7943282.34724301,0
	0.307067319947801,0.169738031493183